LAMMPS data file via write_data, version 10 Aug 2015, timestep = 0

4886 atoms
8 atom types

0.0000000000000000e+00 3.4000000000000000e+03 xlo xhi
0.0000000000000000e+00 3.4000000000000000e+03 ylo yhi
-2.0000000000000000e+02 4.7000000000000000e+03 zlo zhi

Atoms # sphere

1 1 1.0000000000000000e+02 6.8831811072930804e-04 1.2595699342245096e+02 2.1591884511332905e+03 -1.2468834134037064e+02 0 0 0
2 1 1.0000000000000000e+02 6.8831811072930804e-04 8.4983309751834395e+02 3.1448699908074318e+03 -3.3533205852626452e+01 0 0 0
3 1 1.0000000000000000e+02 6.8831811072930804e-04 1.2936699852783559e+03 3.1114425733273115e+03 -8.1451181639661627e+01 0 0 0
4 1 1.0000000000000000e+02 6.8831811072930804e-04 1.8661323841037845e+03 2.4869796323063688e+03 -5.4901166285807818e+01 0 0 0
5 1 1.0000000000000000e+02 6.8831811072930804e-04 5.6737141616985730e+02 2.2113915667922197e+03 -1.1423158371552434e+02 0 0 0
6 1 1.0000000000000000e+02 6.8831811072930804e-04 1.8192551893271761e+03 2.1967021851785024e+01 -8.2368455120533923e+01 0 0 0
7 1 1.0000000000000000e+02 6.8831811072930804e-04 2.2939574757097089e+03 1.9432942530807545e+03 -1.6785226304449714e+02 0 0 0
8 1 1.0000000000000000e+02 6.8831811072930804e-04 3.2146579374627481e+03 2.7559549364056229e+03 -1.3325787239394052e+02 0 0 0
9 1 1.0000000000000000e+02 6.8831811072930804e-04 2.2713808636513450e+03 3.2981753881546551e+03 -6.8603016747442553e+01 0 0 0
10 1 1.0000000000000000e+02 6.8831811072930804e-04 1.2382600190296118e+03 3.6139830684354450e+01 -7.0462687532632941e+01 0 0 0
11 1 1.0000000000000000e+02 6.8831811072930804e-04 2.2754295432360050e+03 3.3443331675344766e+03 -3.4850191061780862e+01 0 0 0
12 1 1.0000000000000000e+02 6.8831811072930804e-04 2.8703556669272275e+03 2.8676940459141942e+03 -6.2715901184229153e+01 0 0 0
13 1 1.0000000000000000e+02 6.8831811072930804e-04 2.6446738084054896e+03 8.3269787106322951e+02 -1.5569888472356780e+02 0 0 0
14 1 1.0000000000000000e+02 6.8831811072930804e-04 2.2147815279731440e+03 6.3314064463281102e+02 -4.7363862137945290e+01 0 0 0
15 1 1.0000000000000000e+02 6.8831811072930804e-04 8.7210579555114066e+02 8.2105828021702266e+01 -2.6314614073519863e+01 0 0 0
16 1 1.0000000000000000e+02 6.8831811072930804e-04 1.4064241216547900e+03 9.7021265205471434e+02 -2.1151127303555199e+00 0 0 0
17 1 1.0000000000000000e+02 6.8831811072930804e-04 3.3434453150925438e+03 1.4854107603828472e+03 -5.3020602675630073e+01 0 0 0
18 1 1.0000000000000000e+02 6.8831811072930804e-04 2.5201222249866100e+03 1.8942353499560779e+03 -6.9792546364382162e+01 0 0 0
19 1 1.0000000000000000e+02 6.8831811072930804e-04 2.4958627766444638e+03 2.1656870635066584e+03 -9.9854331975734951e+01 0 0 0
20 1 1.0000000000000000e+02 6.8831811072930804e-04 2.2337147926137386e+03 2.6445194591044074e+03 -1.0361475483682693e+02 0 0 0
21 1 1.0000000000000000e+02 6.8831811072930804e-04 1.3311407942935550e+03 4.8332969177669361e+02 -1.5752178288880819e+02 0 0 0
22 1 1.0000000000000000e+02 6.8831811072930804e-04 3.0931979109035797e+03 1.3772885564608912e+03 -1.4771950363540998e+02 0 0 0
23 1 1.0000000000000000e+02 6.8831811072930804e-04 1.6547163423405570e+03 2.2175657177425760e+03 -1.0175405913114275e+01 0 0 0
24 1 1.0000000000000000e+02 6.8831811072930804e-04 2.2078503658100267e+03 3.1410981691168149e+03 -1.6253362668796146e+02 0 0 0
25 1 1.0000000000000000e+02 6.8831811072930804e-04 2.4962819131539582e+03 2.4101143785799454e+03 -4.7508188638607123e+01 0 0 0
26 1 1.0000000000000000e+02 6.8831811072930804e-04 3.2666960263935366e+03 1.6011559616779704e+02 -1.0218677693148459e+02 0 0 0
27 1 1.0000000000000000e+02 6.8831811072930804e-04 2.1871753965444750e+03 2.4568897229884237e+03 -3.2015137389309416e+00 0 0 0
28 1 1.0000000000000000e+02 6.8831811072930804e-04 7.0328995189782700e+02 1.7942215467776271e+03 -1.4814490049525392e+02 0 0 0
29 1 1.0000000000000000e+02 6.8831811072930804e-04 7.3770175247346128e+02 2.1533538214645132e+03 -9.3077802701423778e+01 0 0 0
30 1 1.0000000000000000e+02 6.8831811072930804e-04 3.2786562741169037e+03 5.7599908280000045e+02 -1.4020090472893833e+02 0 0 0
31 5 1.0000000000000000e+02 6.8831811072930804e-04 1.8551534020598760e+03 1.5632284203373029e+03 -1.1881996417363173e+02 0 0 0
32 1 1.0000000000000000e+02 6.8831811072930804e-04 1.7997556980698164e+03 2.0940174594028003e+03 -1.5579763630209379e+02 0 0 0
33 1 1.0000000000000000e+02 6.8831811072930804e-04 5.9570667939060684e+02 2.4421605179282651e+03 -1.6518677527326474e+02 0 0 0
34 5 1.0000000000000000e+02 6.8831811072930804e-04 1.6486130702535681e+03 1.6398717517218886e+03 -1.4561581236571811e+02 0 0 0
35 1 1.0000000000000000e+02 6.8831811072930804e-04 2.5084633517584130e+03 3.1435530036424998e+03 -1.3556869297082011e+02 0 0 0
36 1 1.0000000000000000e+02 6.8831811072930804e-04 1.1717360766472927e+03 5.6824021105106931e+02 -1.0986639098723714e+01 0 0 0
37 5 1.0000000000000000e+02 6.8831811072930804e-04 1.9328306104675078e+03 1.4840701274033963e+03 -1.7843345477172801e+02 0 0 0
38 1 1.0000000000000000e+02 6.8831811072930804e-04 1.7969752226010778e+03 2.9625662563194360e+03 -6.7584119954884102e+01 0 0 0
39 1 1.0000000000000000e+02 6.8831811072930804e-04 2.7837175165227227e+03 1.9403001974058805e+03 -1.2791659996282151e+02 0 0 0
40 1 1.0000000000000000e+02 6.8831811072930804e-04 7.6979270883360539e+02 9.0605736640564044e+02 -2.9049577670660597e+01 0 0 0
41 1 1.0000000000000000e+02 6.8831811072930804e-04 1.0093885103284327e+03 2.1926930899697786e+03 -4.2569870149051781e-01 0 0 0
42 1 1.0000000000000000e+02 6.8831811072930804e-04 9.8618673048270250e+02 3.2403792227806425e+03 -8.6119250434506398e+00 0 0 0
43 1 1.0000000000000000e+02 6.8831811072930804e-04 1.0624896935478271e+03 4.6427945832921171e+02 -1.9147905064349951e+02 0 0 0
44 1 1.0000000000000000e+02 6.8831811072930804e-04 1.9683072310724795e+03 2.7396326351629718e+03 -7.0252989172121971e+01 0 0 0
45 1 1.0000000000000000e+02 6.8831811072930804e-04 2.8883719299400095e+03 3.0670265017389443e+03 -1.9326972197427867e+02 0 0 0
46 1 1.0000000000000000e+02 6.8831811072930804e-04 3.0009005009200894e+02 1.4134718963939099e+03 -1.7516690044438786e+02 0 0 0
47 1 1.0000000000000000e+02 6.8831811072930804e-04 7.6067347208069336e+01 6.3904526021287083e+01 -2.0978303542816235e+01 0 0 0
48 1 1.0000000000000000e+02 6.8831811072930804e-04 2.7847371617261024e+02 1.9077477130609320e+03 -1.1083450499495235e+02 0 0 0
49 1 1.0000000000000000e+02 6.8831811072930804e-04 3.3347143415057631e+03 9.4393768736344657e+02 -1.7878167544434856e+02 0 0 0
50 1 1.0000000000000000e+02 6.8831811072930804e-04 1.4556632744407575e+03 2.3326535258128556e+03 -2.8952450784366789e+01 0 0 0
51 1 1.0000000000000000e+02 6.8831811072930804e-04 1.4053677197570762e+03 2.1526595718006880e+02 -1.7794456909314943e+02 0 0 0
52 5 1.0000000000000000e+02 6.8831811072930804e-04 1.7349835519376134e+03 1.4685574154688777e+03 -1.1503048321000789e+02 0 0 0
53 1 1.0000000000000000e+02 6.8831811072930804e-04 3.3603547624127727e+03 8.2491871473608484e+01 -4.4653890768370530e+01 0 0 0
54 1 1.0000000000000000e+02 6.8831811072930804e-04 2.4378796723847649e+03 4.3653770742776693e+01 -4.1827948597179699e+01 0 0 0
55 1 1.0000000000000000e+02 6.8831811072930804e-04 6.7644881758673523e+02 2.8752771802597108e+03 -1.6567243382598852e+02 0 0 0
56 1 1.0000000000000000e+02 6.8831811072930804e-04 1.1793400227927323e+03 2.5677630774526688e+03 -1.8858572076474582e+02 0 0 0
57 1 1.0000000000000000e+02 6.8831811072930804e-04 1.2962450089381284e+03 2.1898652231273545e+03 -1.9618793520898927e+02 0 0 0
58 1 1.0000000000000000e+02 6.8831811072930804e-04 3.0780027748448788e+03 9.9263681787654616e+02 -3.2529526405283036e+01 0 0 0
59 1 1.0000000000000000e+02 6.8831811072930804e-04 2.8725059889594586e+03 1.6081564416215551e+03 -1.0086386273655289e+02 0 0 0
60 1 1.0000000000000000e+02 6.8831811072930804e-04 3.8623718292742836e+02 8.8833346128851804e+02 -1.5173624258103607e+02 0 0 0
61 1 1.0000000000000000e+02 6.8831811072930804e-04 9.7389101142710592e+02 5.8622905536844814e+02 -2.6368613087743796e+01 0 0 0
62 1 1.0000000000000000e+02 6.8831811072930804e-04 1.6056097818564669e+02 2.3483603661639431e+03 -1.0043093427104453e+02 0 0 0
63 1 1.0000000000000000e+02 6.8831811072930804e-04 1.2558309839367078e+03 2.9513470242504713e+03 -1.5944490719560761e+02 0 0 0
64 1 1.0000000000000000e+02 6.8831811072930804e-04 4.7027671927133423e+02 2.3408207933142880e+03 -1.5440745686851790e+02 0 0 0
65 1 1.0000000000000000e+02 6.8831811072930804e-04 7.7000153296161523e+02 1.0157644858657217e+03 -1.6742859145972346e+02 0 0 0
66 1 1.0000000000000000e+02 6.8831811072930804e-04 4.6484267835730816e+02 2.8108951512774893e+03 -1.6776028190169512e+01 0 0 0
67 1 1.0000000000000000e+02 6.8831811072930804e-04 2.2297671812725102e+03 8.9701564707654325e+02 -1.6811879909044075e+02 0 0 0
68 1 1.0000000000000000e+02 6.8831811072930804e-04 3.8824248574126631e+02 5.9145785346229457e+02 -5.6932756424384536e+01 0 0 0
69 1 1.0000000000000000e+02 6.8831811072930804e-04 4.6376381174836484e+02 1.6783840547680779e+03 -7.0540677230125596e+01 0 0 0
70 1 1.0000000000000000e+02 6.8831811072930804e-04 2.6182284545238263e+03 1.7656351819474414e+03 -9.9704123148556789e+00 0 0 0
71 1 1.0000000000000000e+02 6.8831811072930804e-04 2.0512508824706316e+02 3.3373581683902808e+03 -1.3066258026783476e+02 0 0 0
72 1 1.0000000000000000e+02 6.8831811072930804e-04 2.0503835663434043e+03 1.7965995335935613e+03 -1.9715522900091261e+02 0 0 0
73 1 1.0000000000000000e+02 6.8831811072930804e-04 1.2888250726688771e+03 3.2829963458157126e+03 -7.5318580900932929e+01 0 0 0
74 1 1.0000000000000000e+02 6.8831811072930804e-04 1.0639537233225785e+03 1.2702278825781439e+03 -1.9293985347866075e+02 0 0 0
75 1 1.0000000000000000e+02 6.8831811072930804e-04 3.2925441124907434e+03 2.7888986319251817e+03 -1.6357019020410729e+02 0 0 0
76 1 1.0000000000000000e+02 6.8831811072930804e-04 4.0808281237635890e+02 8.4782760946444591e+02 -1.9772751359163203e+02 0 0 0
77 1 1.0000000000000000e+02 6.8831811072930804e-04 1.9094243208455966e+03 2.4945604519427570e+03 -1.6014612929902324e+02 0 0 0
78 1 1.0000000000000000e+02 6.8831811072930804e-04 1.4456082001540849e+03 3.3370199897033258e+03 -6.5001944482793078e+01 0 0 0
79 1 1.0000000000000000e+02 6.8831811072930804e-04 2.1806069075039622e+03 8.6029441908946933e+02 -7.2452844899358610e+01 0 0 0
80 1 1.0000000000000000e+02 6.8831811072930804e-04 1.1082284187470696e+03 7.9503388199723975e+02 -1.9209089837600052e+02 0 0 0
81 1 1.0000000000000000e+02 6.8831811072930804e-04 2.1485372094197837e+03 2.4648787183057884e+03 -1.0490479027149490e+02 0 0 0
82 1 1.0000000000000000e+02 6.8831811072930804e-04 3.0024672439333362e+03 3.0669687875858363e+03 -5.0328649697047013e+01 0 0 0
83 1 1.0000000000000000e+02 6.8831811072930804e-04 2.2524689649476059e+03 1.6458938744132843e+03 -1.9186192564287313e+02 0 0 0
84 1 1.0000000000000000e+02 6.8831811072930804e-04 1.2232396530095673e+03 2.5888481317967403e+03 -1.4290875836410967e+02 0 0 0
85 1 1.0000000000000000e+02 6.8831811072930804e-04 3.1779648928800434e+03 1.4559546348899391e+03 -1.7473243557602746e+02 0 0 0
86 1 1.0000000000000000e+02 6.8831811072930804e-04 1.3837012031971017e+03 3.2661221336881267e+03 -1.5795877080315665e+02 0 0 0
87 1 1.0000000000000000e+02 6.8831811072930804e-04 2.4229682417693398e+03 1.0272394172974116e+03 -2.2771381317997054e+01 0 0 0
88 1 1.0000000000000000e+02 6.8831811072930804e-04 2.1858600527913586e+02 1.7749907264369497e+03 -1.6063886906981415e+02 0 0 0
89 1 1.0000000000000000e+02 6.8831811072930804e-04 2.4462546810723165e+03 1.4024247824225690e+03 -9.6863636698975995e+01 0 0 0
90 1 1.0000000000000000e+02 6.8831811072930804e-04 2.0937867674481995e+03 2.7420050188628977e+02 -1.1248028218396021e+02 0 0 0
91 1 1.0000000000000000e+02 6.8831811072930804e-04 1.6245033037962874e+03 1.0270269042006819e+03 -3.2871829361129471e+01 0 0 0
92 1 1.0000000000000000e+02 6.8831811072930804e-04 1.0698194353235044e+03 1.2552494821395956e+03 -1.2913929304533553e+00 0 0 0
93 1 1.0000000000000000e+02 6.8831811072930804e-04 3.1432988178652240e+03 2.2323186081984630e+02 -1.0247736475545790e+02 0 0 0
94 1 1.0000000000000000e+02 6.8831811072930804e-04 3.3184130721345605e+03 2.3685033655578750e+03 -1.8611382757598247e+02 0 0 0
95 1 1.0000000000000000e+02 6.8831811072930804e-04 2.8270849979608715e+03 3.2175607283681447e+03 -1.6804931274058731e+02 0 0 0
96 1 1.0000000000000000e+02 6.8831811072930804e-04 2.6636766362300500e+03 6.1322511844952828e+02 -1.3679024816341246e+02 0 0 0
97 1 1.0000000000000000e+02 6.8831811072930804e-04 1.5843664280066109e+03 3.0465555071116219e+03 -3.1858351468973950e+01 0 0 0
98 1 1.0000000000000000e+02 6.8831811072930804e-04 1.0090963788372914e+03 6.8283911835534457e+02 -1.1311398833669443e+02 0 0 0
99 1 1.0000000000000000e+02 6.8831811072930804e-04 2.9596349748594848e+03 5.8502246336314010e+02 -1.9262250335543541e+01 0 0 0
100 1 1.0000000000000000e+02 6.8831811072930804e-04 9.5302850164148424e+02 1.5002708842513482e+02 -7.6160284632891546e+01 0 0 0
101 5 1.0000000000000000e+02 6.8831811072930804e-04 1.9298020447277472e+03 1.5829657392497015e+03 -5.5776723686501555e+00 0 0 0
102 1 1.0000000000000000e+02 6.8831811072930804e-04 3.0747876786975132e+02 3.1956515869105474e+03 -2.8457576142837098e+01 0 0 0
103 1 1.0000000000000000e+02 6.8831811072930804e-04 7.6297984223951573e+02 2.0022085195417555e+03 -1.2243600363025256e+02 0 0 0
104 1 1.0000000000000000e+02 6.8831811072930804e-04 2.8177813761019064e+02 3.0451588144736170e+03 -1.2694420112620293e+01 0 0 0
105 1 1.0000000000000000e+02 6.8831811072930804e-04 2.4306461810277060e+03 8.7036453265248076e+02 -1.1666468880915302e+02 0 0 0
106 1 1.0000000000000000e+02 6.8831811072930804e-04 1.9378431336664795e+02 3.1329547532521910e+03 -1.3497770025161003e+01 0 0 0
107 1 1.0000000000000000e+02 6.8831811072930804e-04 3.3988911704155107e+03 1.7639011734928476e+03 -1.2429277092418297e+02 0 0 0
108 1 1.0000000000000000e+02 6.8831811072930804e-04 1.1414085185813758e+03 8.5297179718174584e+02 -1.1194145684686558e+02 0 0 0
109 1 1.0000000000000000e+02 6.8831811072930804e-04 5.7333495867128249e+02 4.4065038824484230e+02 -1.5228969229026217e+02 0 0 0
110 1 1.0000000000000000e+02 6.8831811072930804e-04 2.8084894496987058e+03 8.2181086150082336e+01 -1.5191088679801248e+02 0 0 0
111 1 1.0000000000000000e+02 6.8831811072930804e-04 2.4238772986567942e+03 2.7057585247353459e+03 -1.5979263370846985e+02 0 0 0
112 5 1.0000000000000000e+02 6.8831811072930804e-04 1.7408828319706408e+03 2.0177569305606917e+03 -1.5054518037966693e+02 0 0 0
113 1 1.0000000000000000e+02 6.8831811072930804e-04 1.3648902508266692e+03 3.3104456438265952e+03 -1.3765083567129955e+02 0 0 0
114 1 1.0000000000000000e+02 6.8831811072930804e-04 2.0696988181535612e+03 2.8036706907691762e+01 -8.1592176613207982e+01 0 0 0
115 5 1.0000000000000000e+02 6.8831811072930804e-04 1.5626301646058589e+03 1.5251765306690600e+03 -1.3870876735947502e+02 0 0 0
116 1 1.0000000000000000e+02 6.8831811072930804e-04 1.9893391927654570e+03 2.6238128090388200e+03 -1.7518344026765948e+02 0 0 0
117 1 1.0000000000000000e+02 6.8831811072930804e-04 8.4553309466947474e+02 2.2747221098629393e+03 -1.0267644315151333e+02 0 0 0
118 1 1.0000000000000000e+02 6.8831811072930804e-04 1.5886703889764242e+03 5.8322752676123173e+02 -1.9382104258696597e+02 0 0 0
119 1 1.0000000000000000e+02 6.8831811072930804e-04 4.2599197971913588e+02 2.6472031395170852e+03 -5.0402008020506258e+01 0 0 0
120 1 1.0000000000000000e+02 6.8831811072930804e-04 2.5212479874124974e+03 4.1492444184372408e+02 -1.8617093720760707e+02 0 0 0
121 1 1.0000000000000000e+02 6.8831811072930804e-04 3.0731453656559556e+03 9.5416057964514971e+02 -7.1949288468784317e+01 0 0 0
122 1 1.0000000000000000e+02 6.8831811072930804e-04 1.7296396516867167e+03 5.3625898646947874e+01 -1.8291302592629242e+02 0 0 0
123 1 1.0000000000000000e+02 6.8831811072930804e-04 5.7639526062477159e+02 8.7514532053617063e+02 -1.9015280873987490e+02 0 0 0
124 1 1.0000000000000000e+02 6.8831811072930804e-04 3.0351680691517740e+03 1.8697382338669793e+03 -8.8794317510348890e+01 0 0 0
125 1 1.0000000000000000e+02 6.8831811072930804e-04 3.3361823452339422e+03 1.8166763468723168e+03 -1.4827283041005620e+02 0 0 0
126 1 1.0000000000000000e+02 6.8831811072930804e-04 3.0761010370571635e+03 3.0301298197499150e+03 -7.1065850775253892e+01 0 0 0
127 1 1.0000000000000000e+02 6.8831811072930804e-04 1.6641452767253600e+02 2.1289665923123093e+03 -3.4401768834517270e+00 0 0 0
128 1 1.0000000000000000e+02 6.8831811072930804e-04 1.3595647938361226e+03 2.2054900037150319e+03 -1.4879456243887290e+02 0 0 0
129 1 1.0000000000000000e+02 6.8831811072930804e-04 2.6951299393061222e+03 2.2488899179961950e+03 -4.1596955173461197e+01 0 0 0
130 1 1.0000000000000000e+02 6.8831811072930804e-04 2.8886523263941763e+03 9.7964970692044585e+02 -7.2198575768712246e+01 0 0 0
131 1 1.0000000000000000e+02 6.8831811072930804e-04 8.5089253133670081e+02 5.5077417593019743e+02 -7.8730890657161765e+01 0 0 0
132 1 1.0000000000000000e+02 6.8831811072930804e-04 2.6678440879414998e+03 2.6555860327815572e+03 -1.6267923766871880e+02 0 0 0
133 1 1.0000000000000000e+02 6.8831811072930804e-04 1.7901478645345885e+03 4.1515923282837457e+02 -1.5404552079459910e+02 0 0 0
134 1 1.0000000000000000e+02 6.8831811072930804e-04 9.1043349183650389e+02 1.6556972961200854e+03 -9.9737888807308806e+01 0 0 0
135 1 1.0000000000000000e+02 6.8831811072930804e-04 4.0967664635259501e+02 4.3539524806448969e+02 -1.4776857530128609e+02 0 0 0
136 1 1.0000000000000000e+02 6.8831811072930804e-04 2.1990808274592650e+03 1.9514671078657113e+03 -8.7783417705345641e+01 0 0 0
137 1 1.0000000000000000e+02 6.8831811072930804e-04 1.0455978107850988e+03 2.1624058651562809e+03 -1.4380143049350073e+02 0 0 0
138 1 1.0000000000000000e+02 6.8831811072930804e-04 2.6304290536001463e+03 2.8211038576537294e+03 -1.2396849492749595e+02 0 0 0
139 1 1.0000000000000000e+02 6.8831811072930804e-04 6.7583131747126174e+02 2.6969527394962279e+03 -6.5606310994181001e+01 0 0 0
140 1 1.0000000000000000e+02 6.8831811072930804e-04 2.5706233818878527e+03 6.6717938914298054e+02 -1.9505921611332298e+02 0 0 0
141 1 1.0000000000000000e+02 6.8831811072930804e-04 2.1061776476475308e+02 4.5277240120469236e+02 -1.6789723251382691e+02 0 0 0
142 1 1.0000000000000000e+02 6.8831811072930804e-04 1.3682453298793384e+03 1.8992592820428588e+03 -1.0289686503955016e+02 0 0 0
143 1 1.0000000000000000e+02 6.8831811072930804e-04 2.7497204826910611e+03 1.7521525886618310e+03 -1.3949660944728953e+02 0 0 0
144 1 1.0000000000000000e+02 6.8831811072930804e-04 2.2182862319137371e+03 1.7366997741799337e+03 -1.6876197521051495e+01 0 0 0
145 1 1.0000000000000000e+02 6.8831811072930804e-04 2.9420202252185068e+03 3.3392524744101115e+02 -6.5786250525054641e+01 0 0 0
146 1 1.0000000000000000e+02 6.8831811072930804e-04 1.9603877229431587e+03 2.2364595056681242e+03 -1.3088754328474755e+02 0 0 0
147 1 1.0000000000000000e+02 6.8831811072930804e-04 5.4802618713491893e+02 7.6127176581009834e+01 -1.3709077664515505e+02 0 0 0
148 1 1.0000000000000000e+02 6.8831811072930804e-04 2.0899945171037666e+03 1.1378489630007414e+03 -6.8969343914170452e+01 0 0 0
149 1 1.0000000000000000e+02 6.8831811072930804e-04 2.0965745021107489e+02 1.3127656975354839e+03 -1.3805420712477257e+02 0 0 0
150 1 1.0000000000000000e+02 6.8831811072930804e-04 3.1561709739063731e+03 2.3655584444131505e+03 -9.7601455774903982e+01 0 0 0
151 1 1.0000000000000000e+02 6.8831811072930804e-04 1.9420220560124246e+03 2.9646954008213688e+03 -1.6261167030903124e+02 0 0 0
152 1 1.0000000000000000e+02 6.8831811072930804e-04 1.3589677619556746e+03 2.3711751890234532e+03 -1.4462341663642945e+02 0 0 0
153 1 1.0000000000000000e+02 6.8831811072930804e-04 1.6010499172848884e+03 1.2459598071155883e+03 -1.8550128284166627e+02 0 0 0
154 1 1.0000000000000000e+02 6.8831811072930804e-04 1.7230242335810437e+03 1.0682937966046361e+03 -3.4480027404837330e+01 0 0 0
155 1 1.0000000000000000e+02 6.8831811072930804e-04 6.6264993877273514e+02 2.1575209533597904e+03 -1.7325511070585583e+02 0 0 0
156 1 1.0000000000000000e+02 6.8831811072930804e-04 3.3972956946107074e+03 2.1487393221579209e+03 -5.5188970107207524e+01 0 0 0
157 1 1.0000000000000000e+02 6.8831811072930804e-04 2.6133754926795956e+02 2.9001905465965115e+03 -1.3514607955475620e+02 0 0 0
158 1 1.0000000000000000e+02 6.8831811072930804e-04 2.5195985101720312e+03 3.2921604613271356e+03 -1.5242733813469641e+01 0 0 0
159 1 1.0000000000000000e+02 6.8831811072930804e-04 1.5704548266578720e+03 4.3427163885639595e+02 -5.8621514150230922e+01 0 0 0
160 1 1.0000000000000000e+02 6.8831811072930804e-04 5.7638811542484359e+02 7.5505594534569229e+02 -1.1616038676172514e+02 0 0 0
161 1 1.0000000000000000e+02 6.8831811072930804e-04 3.1771734016841156e+03 1.7533621049268925e+03 -1.4371191139505800e+02 0 0 0
162 1 1.0000000000000000e+02 6.8831811072930804e-04 2.0162599929684120e+03 2.8817018201023816e+03 -1.3971149369129506e+01 0 0 0
163 1 1.0000000000000000e+02 6.8831811072930804e-04 8.7204808773102616e+02 2.5122104953565681e+03 -1.1048262012679253e+02 0 0 0
164 1 1.0000000000000000e+02 6.8831811072930804e-04 1.8456224194008962e+03 1.1760028708614423e+03 -1.4822055480825742e+02 0 0 0
165 1 1.0000000000000000e+02 6.8831811072930804e-04 2.4870251332814923e+03 3.2314150620398182e+03 -7.1003076280934295e+01 0 0 0
166 1 1.0000000000000000e+02 6.8831811072930804e-04 1.6657032770410660e+03 3.2749772291979648e+03 -3.3946394004834133e+00 0 0 0
167 1 1.0000000000000000e+02 6.8831811072930804e-04 1.7628753631202855e+02 1.4646227962638357e+03 -4.9801878654305654e+00 0 0 0
168 1 1.0000000000000000e+02 6.8831811072930804e-04 2.9973331874224045e+03 1.7788810083544258e+03 -1.1452309336258243e+02 0 0 0
169 1 1.0000000000000000e+02 6.8831811072930804e-04 2.8807880419682656e+03 1.4046213606393997e+03 -1.2522304315363199e+02 0 0 0
170 1 1.0000000000000000e+02 6.8831811072930804e-04 3.0317198444305545e+03 1.7154253443309224e+03 -4.9778695893370866e+01 0 0 0
171 1 1.0000000000000000e+02 6.8831811072930804e-04 2.2389343841182695e+03 1.9701938757534110e+03 -1.7361942426004421e+02 0 0 0
172 1 1.0000000000000000e+02 6.8831811072930804e-04 1.2089437624481245e+02 2.0717815465628087e+03 -1.3926746581646961e+02 0 0 0
173 1 1.0000000000000000e+02 6.8831811072930804e-04 1.7617407820009353e+03 2.3773230897157096e+03 -6.6519479298274717e+01 0 0 0
174 1 1.0000000000000000e+02 6.8831811072930804e-04 9.0674498700850870e+02 8.6299665200663583e+02 -8.9821908664805505e-01 0 0 0
175 1 1.0000000000000000e+02 6.8831811072930804e-04 2.9517145896105631e+03 6.7107584731237779e+01 -5.4283730710988721e+01 0 0 0
176 1 1.0000000000000000e+02 6.8831811072930804e-04 1.3988660422148490e+02 1.6741571504968019e+03 -4.9457152955912591e+01 0 0 0
177 1 1.0000000000000000e+02 6.8831811072930804e-04 9.9166818176939535e+02 1.6713099822734063e+02 -1.6643016429917429e+02 0 0 0
178 1 1.0000000000000000e+02 6.8831811072930804e-04 6.8883192561978092e+02 1.9817389165897569e+02 -7.5964875740914081e+01 0 0 0
179 1 1.0000000000000000e+02 6.8831811072930804e-04 8.0957102319671355e+02 3.0601868671645348e+03 -1.5525432739185837e+02 0 0 0
180 1 1.0000000000000000e+02 6.8831811072930804e-04 4.6958678712583458e+02 9.4513122390263300e+02 -1.9879528637919356e+02 0 0 0
181 1 1.0000000000000000e+02 6.8831811072930804e-04 3.2256327666461621e+03 2.0990902204527941e+02 -7.4062734411127281e+01 0 0 0
182 1 1.0000000000000000e+02 6.8831811072930804e-04 7.4559529374614146e+02 2.2201019913983077e+03 -1.0269591580270600e+02 0 0 0
183 1 1.0000000000000000e+02 6.8831811072930804e-04 7.7820348310200666e+02 2.8659404954248762e+03 -1.9635843494737449e+02 0 0 0
184 1 1.0000000000000000e+02 6.8831811072930804e-04 9.7291946847593397e+02 1.2575066750205619e+03 -1.6972428996568746e+02 0 0 0
185 1 1.0000000000000000e+02 6.8831811072930804e-04 9.2706003642038434e+02 2.2980321174012647e+03 -5.7306049232047997e+01 0 0 0
186 1 1.0000000000000000e+02 6.8831811072930804e-04 2.4097790624060572e+03 3.5670185860092840e+02 -1.4775661730568697e+02 0 0 0
187 5 1.0000000000000000e+02 6.8831811072930804e-04 1.8007336721758982e+03 1.5308282603187617e+03 -1.5114287191589497e+02 0 0 0
188 1 1.0000000000000000e+02 6.8831811072930804e-04 9.5501624939731141e+02 2.9581036206139734e+03 -7.9555784761698817e+01 0 0 0
189 1 1.0000000000000000e+02 6.8831811072930804e-04 3.0673936855361767e+03 2.8856728065226566e+03 -8.8067104335905569e+01 0 0 0
190 1 1.0000000000000000e+02 6.8831811072930804e-04 8.0975093245960352e+02 2.6839218485559904e+03 -1.4855831290993760e+02 0 0 0
191 1 1.0000000000000000e+02 6.8831811072930804e-04 1.6516182624975304e+03 1.1481377959941224e+03 -9.6944866281442742e+01 0 0 0
192 1 1.0000000000000000e+02 6.8831811072930804e-04 3.2811915202444379e+03 2.3858807482690927e+03 -6.0155200799999591e+00 0 0 0
193 1 1.0000000000000000e+02 6.8831811072930804e-04 5.4513705174677867e+01 1.6118428708109273e+03 -5.6286487102641956e+01 0 0 0
194 1 1.0000000000000000e+02 6.8831811072930804e-04 1.7341914781062823e+02 8.5561725322884377e+02 -9.6519116636607393e+01 0 0 0
195 1 1.0000000000000000e+02 6.8831811072930804e-04 7.6044246030992014e+01 3.0756430428827380e+03 -7.4551662930544310e+01 0 0 0
196 1 1.0000000000000000e+02 6.8831811072930804e-04 2.0334038750424068e+03 2.0189278377308174e+03 -1.9293125047950599e+02 0 0 0
197 1 1.0000000000000000e+02 6.8831811072930804e-04 3.0812716111919244e+03 1.5319693026747411e+03 -2.3054702683843061e+01 0 0 0
198 1 1.0000000000000000e+02 6.8831811072930804e-04 2.8504479889061522e+03 1.4793495457057606e+03 -4.5422666075370586e+01 0 0 0
199 1 1.0000000000000000e+02 6.8831811072930804e-04 1.0149908853764604e+03 1.1518105221687865e+03 -6.5914935835597532e+01 0 0 0
200 1 1.0000000000000000e+02 6.8831811072930804e-04 2.5492238817500065e+03 1.4057805723537601e+03 -1.7917179119734644e+02 0 0 0
201 1 1.0000000000000000e+02 6.8831811072930804e-04 2.9591516819592339e+03 2.6623186888463415e+03 -1.0645862114916491e+02 0 0 0
202 1 1.0000000000000000e+02 6.8831811072930804e-04 2.6423473088267942e+03 2.5312194519355985e+03 -1.1733360696459823e+02 0 0 0
203 1 1.0000000000000000e+02 6.8831811072930804e-04 1.5806822311974513e+03 2.3262597355648222e+03 -1.5015437423724418e+02 0 0 0
204 1 1.0000000000000000e+02 6.8831811072930804e-04 8.2492193348003639e+02 2.6629359989720097e+03 -9.6156781025303900e+01 0 0 0
205 1 1.0000000000000000e+02 6.8831811072930804e-04 1.4235315383521522e+03 2.8945650846206422e+03 -9.6742516521710215e+01 0 0 0
206 1 1.0000000000000000e+02 6.8831811072930804e-04 7.3779332755962082e+02 2.9245629454611628e+02 -6.3944562554333629e+01 0 0 0
207 1 1.0000000000000000e+02 6.8831811072930804e-04 7.4748223607776799e+02 3.3339417590452085e+03 -1.0828563101044188e+02 0 0 0
208 1 1.0000000000000000e+02 6.8831811072930804e-04 2.6207436646431424e+03 3.2387716572912277e+03 -1.9792681801967640e+02 0 0 0
209 1 1.0000000000000000e+02 6.8831811072930804e-04 2.6780678161783462e+03 1.0857865094606700e+03 -1.4036091144213495e+02 0 0 0
210 1 1.0000000000000000e+02 6.8831811072930804e-04 2.6707526735359584e+03 5.4018411885024238e+02 -1.4855967552799717e+02 0 0 0
211 1 1.0000000000000000e+02 6.8831811072930804e-04 1.0158078700377641e+03 1.2828717247037550e+03 -9.2642523764000529e+01 0 0 0
212 1 1.0000000000000000e+02 6.8831811072930804e-04 3.3604050986284415e+03 9.2849264821433121e+02 -4.8474203631502689e+01 0 0 0
213 1 1.0000000000000000e+02 6.8831811072930804e-04 7.6883541828432840e+01 1.8168751047071419e+02 -1.7517714815921016e+02 0 0 0
214 1 1.0000000000000000e+02 6.8831811072930804e-04 1.6802802701854521e+03 7.0501006893115587e+01 -9.9386891023901697e+01 0 0 0
215 1 1.0000000000000000e+02 6.8831811072930804e-04 2.6596093376444696e+03 2.5413779060083337e+02 -1.4742078657607584e+02 0 0 0
216 1 1.0000000000000000e+02 6.8831811072930804e-04 1.9059119745650851e+03 1.2625565153837933e+03 -1.7721446732860733e+02 0 0 0
217 1 1.0000000000000000e+02 6.8831811072930804e-04 9.3564496484382300e+02 3.8492413013471480e+02 -4.5890872108699227e+01 0 0 0
218 1 1.0000000000000000e+02 6.8831811072930804e-04 4.1754399436411632e+02 6.1913277703296984e+01 -1.8962009651103062e+02 0 0 0
219 1 1.0000000000000000e+02 6.8831811072930804e-04 6.2486102191026373e+02 2.8391952458020278e+03 -3.7970812077620451e+01 0 0 0
220 1 1.0000000000000000e+02 6.8831811072930804e-04 1.6253273133306427e+03 1.2761551481094934e+03 -1.3296621904380908e+02 0 0 0
221 5 1.0000000000000000e+02 6.8831811072930804e-04 1.9245534607789261e+03 1.7700153114134516e+03 -7.9568298477478464e+01 0 0 0
222 1 1.0000000000000000e+02 6.8831811072930804e-04 1.3541093315715480e+03 2.3155357230061363e+03 -1.5241784916837599e+02 0 0 0
223 1 1.0000000000000000e+02 6.8831811072930804e-04 1.3893144108305287e+03 2.4073028286953004e+03 -2.7138712828577837e+01 0 0 0
224 1 1.0000000000000000e+02 6.8831811072930804e-04 2.9962423783709492e+03 4.4565328054393331e+02 -6.1949351831315767e+00 0 0 0
225 1 1.0000000000000000e+02 6.8831811072930804e-04 1.1563669020106863e+02 2.1058522093602701e+03 -5.5406898937843238e+01 0 0 0
226 1 1.0000000000000000e+02 6.8831811072930804e-04 2.6630552935707642e+03 3.7031904383111697e+02 -8.5166490024498898e+01 0 0 0
227 1 1.0000000000000000e+02 6.8831811072930804e-04 4.3021145855552113e+01 2.2563983942644663e+03 -1.8363976300863527e+01 0 0 0
228 1 1.0000000000000000e+02 6.8831811072930804e-04 3.3029835266540681e+03 1.4441324749235680e+03 -6.2676115270087536e+01 0 0 0
229 5 1.0000000000000000e+02 6.8831811072930804e-04 1.7461247029463409e+03 1.7178824191530618e+03 -2.0598899675812049e+01 0 0 0
230 1 1.0000000000000000e+02 6.8831811072930804e-04 2.2901467061090034e+03 2.4956895740217014e+03 -4.3842906897814430e+01 0 0 0
231 5 1.0000000000000000e+02 6.8831811072930804e-04 1.8122730576490392e+03 1.6732799074022471e+03 -1.1674095826071732e+02 0 0 0
232 1 1.0000000000000000e+02 6.8831811072930804e-04 3.0612263631360725e+03 1.2314852279757547e+03 -9.5751377146575308e+01 0 0 0
233 1 1.0000000000000000e+02 6.8831811072930804e-04 2.7396627722958397e+03 2.7122139761746926e+03 -1.7762955482007450e+02 0 0 0